# vtk DataFile Version 3.0
vtk output
ASCII
DATASET RECTILINEAR_GRID
DIMENSIONS 2 2 2 
X_COORDINATES 2 float
-3e+06 3e+06
Y_COORDINATES 2 float
-3e+06 3e+06
Z_COORDINATES 2 float
-3e+06 3e+06

POINT_DATA 8
SCALARS node_sMD float
LOOKUP_TABLE default
13 13 13 13 13 13 13 13
